TITLE = "Example : Job-C3D20-canbeam-40-static"
VARIABLES= "X"   "Y"   "Z" 

ZONE F=FEPOINT N =   321 E =    40 ET=BRICK C=CYAN 
