TITLE = "Example : Job-27"
VARIABLES= "X"   "Y"   "Z" 

ZONE F=FEPOINT N =   525 E =   320 ET=BRICK C=CYAN 
