TITLE = "Example : C3D20-cantilever-beam-element320"
VARIABLES= "X"   "Y"   "Z" 

ZONE F=FEPOINT N =  1865 E =   320 ET=BRICK C=CYAN 
