TITLE = "Example : C3D8_ne1_P"
VARIABLES= "X"   "Y"   "Z" 

ZONE F=FEPOINT N =     8 E =     1 ET=BRICK C=CYAN 
 -1.0000E+00 -1.0000E+00  2.0000E+00
 -1.0000E+00  9.9999E-01  2.0000E+00
 -1.0000E+00 -1.0000E+00  0.0000E+00
 -1.0000E+00  9.9999E-01  0.0000E+00
  1.0000E+00 -1.0000E+00  2.0000E+00
  1.0000E+00  9.9999E-01  2.0000E+00
  1.0000E+00 -1.0000E+00  0.0000E+00
  1.0000E+00  9.9999E-01  0.0000E+00
      5      6      8      7      1      2      4      3
