TITLE = "Example : Job-C3D20-canbeam-rho7800-40-dyna-800s-matlab"
VARIABLES= "X"   "Y"   "Z" 

ZONE F=FEPOINT N =   321 E =    40 ET=BRICK C=CYAN 
