# vtk DataFile Version 3.0
VTK from Matlab
ASCII
DATASET POLYDATA
POINTS	5581	double
3.000000e+01 1.500000e+01 0.000000e+00
2.950000e+01 1.500000e+01 0.000000e+00
2.900000e+01 1.500000e+01 0.000000e+00
2.850000e+01 1.500000e+01 0.000000e+00
2.800000e+01 1.500000e+01 0.000000e+00
2.750000e+01 1.500000e+01 0.000000e+00
2.700000e+01 1.500000e+01 0.000000e+00
2.650000e+01 1.500000e+01 0.000000e+00
2.600000e+01 1.500000e+01 0.000000e+00
2.550000e+01 1.500000e+01 0.000000e+00
2.500000e+01 1.500000e+01 0.000000e+00
2.450000e+01 1.500000e+01 0.000000e+00
2.400000e+01 1.500000e+01 0.000000e+00
2.350000e+01 1.500000e+01 0.000000e+00
2.300000e+01 1.500000e+01 0.000000e+00
2.250000e+01 1.500000e+01 0.000000e+00
2.200000e+01 1.500000e+01 0.000000e+00
2.150000e+01 1.500000e+01 0.000000e+00
2.100000e+01 1.500000e+01 0.000000e+00
2.050000e+01 1.500000e+01 0.000000e+00
2.000000e+01 1.500000e+01 0.000000e+00
1.950000e+01 1.500000e+01 0.000000e+00
1.900000e+01 1.500000e+01 0.000000e+00
1.850000e+01 1.500000e+01 0.000000e+00
1.800000e+01 1.500000e+01 0.000000e+00
1.750000e+01 1.500000e+01 0.000000e+00
1.700000e+01 1.500000e+01 0.000000e+00
1.650000e+01 1.500000e+01 0.000000e+00
1.600000e+01 1.500000e+01 0.000000e+00
1.550000e+01 1.500000e+01 0.000000e+00
1.500000e+01 1.500000e+01 0.000000e+00
3.000000e+01 1.450000e+01 0.000000e+00
2.950000e+01 1.450000e+01 0.000000e+00
2.900000e+01 1.450000e+01 0.000000e+00
2.850000e+01 1.450000e+01 0.000000e+00
2.800000e+01 1.450000e+01 0.000000e+00
2.750000e+01 1.450000e+01 0.000000e+00
2.700000e+01 1.450000e+01 0.000000e+00
2.650000e+01 1.450000e+01 0.000000e+00
2.600000e+01 1.450000e+01 0.000000e+00
2.550000e+01 1.450000e+01 0.000000e+00
2.500000e+01 1.450000e+01 0.000000e+00
2.450000e+01 1.450000e+01 0.000000e+00
2.400000e+01 1.450000e+01 0.000000e+00
2.350000e+01 1.450000e+01 0.000000e+00
2.300000e+01 1.450000e+01 0.000000e+00
2.250000e+01 1.450000e+01 0.000000e+00
2.200000e+01 1.450000e+01 0.000000e+00
2.150000e+01 1.450000e+01 0.000000e+00
2.100000e+01 1.450000e+01 0.000000e+00
2.050000e+01 1.450000e+01 0.000000e+00
2.000000e+01 1.450000e+01 0.000000e+00
1.950000e+01 1.450000e+01 0.000000e+00
1.900000e+01 1.450000e+01 0.000000e+00
1.850000e+01 1.450000e+01 0.000000e+00
1.800000e+01 1.450000e+01 0.000000e+00
1.750000e+01 1.450000e+01 0.000000e+00
1.700000e+01 1.450000e+01 0.000000e+00
1.650000e+01 1.450000e+01 0.000000e+00
1.600000e+01 1.450000e+01 0.000000e+00
1.550000e+01 1.450000e+01 0.000000e+00
1.500000e+01 1.450000e+01 0.000000e+00
3.000000e+01 1.400000e+01 0.000000e+00
2.950000e+01 1.400000e+01 0.000000e+00
2.900000e+01 1.400000e+01 0.000000e+00
2.850000e+01 1.400000e+01 0.000000e+00
2.800000e+01 1.400000e+01 0.000000e+00
2.750000e+01 1.400000e+01 0.000000e+00
2.700000e+01 1.400000e+01 0.000000e+00
2.650000e+01 1.400000e+01 0.000000e+00
2.600000e+01 1.400000e+01 0.000000e+00
2.550000e+01 1.400000e+01 0.000000e+00
2.500000e+01 1.400000e+01 0.000000e+00
2.450000e+01 1.400000e+01 0.000000e+00
2.400000e+01 1.400000e+01 0.000000e+00
2.350000e+01 1.400000e+01 0.000000e+00
2.300000e+01 1.400000e+01 0.000000e+00
2.250000e+01 1.400000e+01 0.000000e+00
2.200000e+01 1.400000e+01 0.000000e+00
2.150000e+01 1.400000e+01 0.000000e+00
2.100000e+01 1.400000e+01 0.000000e+00
2.050000e+01 1.400000e+01 0.000000e+00
2.000000e+01 1.400000e+01 0.000000e+00
1.950000e+01 1.400000e+01 0.000000e+00
1.900000e+01 1.400000e+01 0.000000e+00
1.850000e+01 1.400000e+01 0.000000e+00
1.800000e+01 1.400000e+01 0.000000e+00
1.750000e+01 1.400000e+01 0.000000e+00
1.700000e+01 1.400000e+01 0.000000e+00
1.650000e+01 1.400000e+01 0.000000e+00
1.600000e+01 1.400000e+01 0.000000e+00
1.550000e+01 1.400000e+01 0.000000e+00
1.500000e+01 1.400000e+01 0.000000e+00
3.000000e+01 1.350000e+01 0.000000e+00
2.950000e+01 1.350000e+01 0.000000e+00
2.900000e+01 1.350000e+01 0.000000e+00
2.850000e+01 1.350000e+01 0.000000e+00
2.800000e+01 1.350000e+01 0.000000e+00
2.750000e+01 1.350000e+01 0.000000e+00
2.700000e+01 1.350000e+01 0.000000e+00
2.650000e+01 1.350000e+01 0.000000e+00
2.600000e+01 1.350000e+01 0.000000e+00
2.550000e+01 1.350000e+01 0.000000e+00
2.500000e+01 1.350000e+01 0.000000e+00
2.450000e+01 1.350000e+01 0.000000e+00
2.400000e+01 1.350000e+01 0.000000e+00
2.350000e+01 1.350000e+01 0.000000e+00
2.300000e+01 1.350000e+01 0.000000e+00
2.250000e+01 1.350000e+01 0.000000e+00
2.200000e+01 1.350000e+01 0.000000e+00
2.150000e+01 1.350000e+01 0.000000e+00
2.100000e+01 1.350000e+01 0.000000e+00
2.050000e+01 1.350000e+01 0.000000e+00
2.000000e+01 1.350000e+01 0.000000e+00
1.950000e+01 1.350000e+01 0.000000e+00
1.900000e+01 1.350000e+01 0.000000e+00
1.850000e+01 1.350000e+01 0.000000e+00
1.800000e+01 1.350000e+01 0.000000e+00
1.750000e+01 1.350000e+01 0.000000e+00
1.700000e+01 1.350000e+01 0.000000e+00
1.650000e+01 1.350000e+01 0.000000e+00
1.600000e+01 1.350000e+01 0.000000e+00
1.550000e+01 1.350000e+01 0.000000e+00
1.500000e+01 1.350000e+01 0.000000e+00
3.000000e+01 1.300000e+01 0.000000e+00
2.950000e+01 1.300000e+01 0.000000e+00
2.900000e+01 1.300000e+01 0.000000e+00
2.850000e+01 1.300000e+01 0.000000e+00
2.800000e+01 1.300000e+01 0.000000e+00
2.750000e+01 1.300000e+01 0.000000e+00
2.700000e+01 1.300000e+01 0.000000e+00
2.650000e+01 1.300000e+01 0.000000e+00
2.600000e+01 1.300000e+01 0.000000e+00
2.550000e+01 1.300000e+01 0.000000e+00
2.500000e+01 1.300000e+01 0.000000e+00
2.450000e+01 1.300000e+01 0.000000e+00
2.400000e+01 1.300000e+01 0.000000e+00
2.350000e+01 1.300000e+01 0.000000e+00
2.300000e+01 1.300000e+01 0.000000e+00
2.250000e+01 1.300000e+01 0.000000e+00
2.200000e+01 1.300000e+01 0.000000e+00
2.150000e+01 1.300000e+01 0.000000e+00
2.100000e+01 1.300000e+01 0.000000e+00
2.050000e+01 1.300000e+01 0.000000e+00
2.000000e+01 1.300000e+01 0.000000e+00
1.950000e+01 1.300000e+01 0.000000e+00
1.900000e+01 1.300000e+01 0.000000e+00
1.850000e+01 1.300000e+01 0.000000e+00
1.800000e+01 1.300000e+01 0.000000e+00
1.750000e+01 1.300000e+01 0.000000e+00
1.700000e+01 1.300000e+01 0.000000e+00
1.650000e+01 1.300000e+01 0.000000e+00
1.600000e+01 1.300000e+01 0.000000e+00
1.550000e+01 1.300000e+01 0.000000e+00
1.500000e+01 1.300000e+01 0.000000e+00
3.000000e+01 1.250000e+01 0.000000e+00
2.950000e+01 1.250000e+01 0.000000e+00
2.900000e+01 1.250000e+01 0.000000e+00
2.850000e+01 1.250000e+01 0.000000e+00
2.800000e+01 1.250000e+01 0.000000e+00
2.750000e+01 1.250000e+01 0.000000e+00
2.700000e+01 1.250000e+01 0.000000e+00
2.650000e+01 1.250000e+01 0.000000e+00
2.600000e+01 1.250000e+01 0.000000e+00
2.550000e+01 1.250000e+01 0.000000e+00
2.500000e+01 1.250000e+01 0.000000e+00
2.450000e+01 1.250000e+01 0.000000e+00
2.400000e+01 1.250000e+01 0.000000e+00
2.350000e+01 1.250000e+01 0.000000e+00
2.300000e+01 1.250000e+01 0.000000e+00
2.250000e+01 1.250000e+01 0.000000e+00
2.200000e+01 1.250000e+01 0.000000e+00
2.150000e+01 1.250000e+01 0.000000e+00
2.100000e+01 1.250000e+01 0.000000e+00
2.050000e+01 1.250000e+01 0.000000e+00
2.000000e+01 1.250000e+01 0.000000e+00
1.950000e+01 1.250000e+01 0.000000e+00
1.900000e+01 1.250000e+01 0.000000e+00
1.850000e+01 1.250000e+01 0.000000e+00
1.800000e+01 1.250000e+01 0.000000e+00
1.750000e+01 1.250000e+01 0.000000e+00
1.700000e+01 1.250000e+01 0.000000e+00
1.650000e+01 1.250000e+01 0.000000e+00
1.600000e+01 1.250000e+01 0.000000e+00
1.550000e+01 1.250000e+01 0.000000e+00
1.500000e+01 1.250000e+01 0.000000e+00
3.000000e+01 1.200000e+01 0.000000e+00
2.950000e+01 1.200000e+01 0.000000e+00
2.900000e+01 1.200000e+01 0.000000e+00
2.850000e+01 1.200000e+01 0.000000e+00
2.800000e+01 1.200000e+01 0.000000e+00
2.750000e+01 1.200000e+01 0.000000e+00
2.700000e+01 1.200000e+01 0.000000e+00
2.650000e+01 1.200000e+01 0.000000e+00
2.600000e+01 1.200000e+01 0.000000e+00
2.550000e+01 1.200000e+01 0.000000e+00
2.500000e+01 1.200000e+01 0.000000e+00
2.450000e+01 1.200000e+01 0.000000e+00
2.400000e+01 1.200000e+01 0.000000e+00
2.350000e+01 1.200000e+01 0.000000e+00
2.300000e+01 1.200000e+01 0.000000e+00
2.250000e+01 1.200000e+01 0.000000e+00
2.200000e+01 1.200000e+01 0.000000e+00
2.150000e+01 1.200000e+01 0.000000e+00
2.100000e+01 1.200000e+01 0.000000e+00
2.050000e+01 1.200000e+01 0.000000e+00
2.000000e+01 1.200000e+01 0.000000e+00
1.950000e+01 1.200000e+01 0.000000e+00
1.900000e+01 1.200000e+01 0.000000e+00
1.850000e+01 1.200000e+01 0.000000e+00
1.800000e+01 1.200000e+01 0.000000e+00
1.750000e+01 1.200000e+01 0.000000e+00
1.700000e+01 1.200000e+01 0.000000e+00
1.650000e+01 1.200000e+01 0.000000e+00
1.600000e+01 1.200000e+01 0.000000e+00
1.550000e+01 1.200000e+01 0.000000e+00
1.500000e+01 1.200000e+01 0.000000e+00
3.000000e+01 1.150000e+01 0.000000e+00
2.950000e+01 1.150000e+01 0.000000e+00
2.900000e+01 1.150000e+01 0.000000e+00
2.850000e+01 1.150000e+01 0.000000e+00
2.800000e+01 1.150000e+01 0.000000e+00
2.750000e+01 1.150000e+01 0.000000e+00
2.700000e+01 1.150000e+01 0.000000e+00
2.650000e+01 1.150000e+01 0.000000e+00
2.600000e+01 1.150000e+01 0.000000e+00
2.550000e+01 1.150000e+01 0.000000e+00
2.500000e+01 1.150000e+01 0.000000e+00
2.450000e+01 1.150000e+01 0.000000e+00
2.400000e+01 1.150000e+01 0.000000e+00
2.350000e+01 1.150000e+01 0.000000e+00
2.300000e+01 1.150000e+01 0.000000e+00
2.250000e+01 1.150000e+01 0.000000e+00
2.200000e+01 1.150000e+01 0.000000e+00
2.150000e+01 1.150000e+01 0.000000e+00
2.100000e+01 1.150000e+01 0.000000e+00
2.050000e+01 1.150000e+01 0.000000e+00
2.000000e+01 1.150000e+01 0.000000e+00
1.950000e+01 1.150000e+01 0.000000e+00
1.900000e+01 1.150000e+01 0.000000e+00
1.850000e+01 1.150000e+01 0.000000e+00
1.800000e+01 1.150000e+01 0.000000e+00
1.750000e+01 1.150000e+01 0.000000e+00
1.700000e+01 1.150000e+01 0.000000e+00
1.650000e+01 1.150000e+01 0.000000e+00
1.600000e+01 1.150000e+01 0.000000e+00
1.550000e+01 1.150000e+01 0.000000e+00
1.500000e+01 1.150000e+01 0.000000e+00
3.000000e+01 1.100000e+01 0.000000e+00
2.950000e+01 1.100000e+01 0.000000e+00
2.900000e+01 1.100000e+01 0.000000e+00
2.850000e+01 1.100000e+01 0.000000e+00
2.800000e+01 1.100000e+01 0.000000e+00
2.750000e+01 1.100000e+01 0.000000e+00
[...]
POINT_DATA 5581
VECTORS dis double
0.00014346 -3.4e-05 0
0.00013814 -3.3047e-05 0
0.0001328 -3.1987e-05 0
0.00012741 -3.1102e-05 0
0.00012209 -3.0193e-05 0
0.0001166 -2.9354e-05 0
0.00011121 -2.838e-05 0
0.00010586 -2.7519e-05 0
0.00010027 -2.6459e-05 0
9.4955e-05 -2.5574e-05 0
8.9546e-05 -2.439e-05 0
8.3831e-05 -2.3066e-05 0
7.8674e-05 -2.1954e-05 0
7.2824e-05 -1.986e-05 0
6.7196e-05 -1.7792e-05 0
6.0451e-05 -1.5809e-05 0
5.4274e-05 -1.3987e-05 0
4.7411e-05 -1.2134e-05 0
4.0753e-05 -1.0298e-05 0
3.334e-05 -8.5893e-06 0
2.7137e-05 -6.7282e-06 0
1.9197e-05 -4.7439e-06 0
9.7026e-06 -2.5947e-06 0
4.0574e-06 -1.1409e-06 0
1.3044e-06 -3.9033e-07 0
3.5381e-07 -1.2656e-07 0
9.4395e-08 -2.2701e-08 0
7.579e-09 -8.4313e-09 0
8.6861e-09 -2.3702e-09 0
-3.3267e-09 3.3925e-09 0
8.6858e-09 -5.2568e-09 0
0.00014253 -3.2073e-05 0
0.00013718 -3.114e-05 0
0.00013187 -3.014e-05 0
0.00012649 -2.9168e-05 0
0.00012103 -2.8313e-05 0
0.00011572 -2.7505e-05 0
0.00011029 -2.6515e-05 0
0.00010479 -2.5691e-05 0
9.9338e-05 -2.4584e-05 0
9.3858e-05 -2.3783e-05 0
8.8243e-05 -2.2505e-05 0
8.2662e-05 -2.1332e-05 0
7.7026e-05 -2.0021e-05 0
7.0974e-05 -1.805e-05 0
6.5207e-05 -1.5903e-05 0
5.8673e-05 -1.3952e-05 0
5.2458e-05 -1.2011e-05 0
4.5561e-05 -1.0191e-05 0
3.9051e-05 -8.4477e-06 0
3.1564e-05 -6.5802e-06 0
2.5038e-05 -4.6147e-06 0
1.714e-05 -2.6167e-06 0
8.4287e-06 -1.1933e-06 0
3.5137e-06 -4.4912e-07 0
1.1068e-06 -1.2366e-07 0
3.0818e-07 -4.0625e-08 0
8.0226e-08 -4.5905e-09 0
5.1371e-09 1.1717e-09 0
1.0825e-08 -6.2415e-09 0
-6.7551e-09 9.0904e-09 0
1.9443e-09 -1.0008e-08 0
0.00014154 -3.0179e-05 0
0.00013608 -2.9278e-05 0
0.00013088 -2.826e-05 0
0.00012555 -2.7366e-05 0
0.00012006 -2.6502e-05 0
0.00011477 -2.5609e-05 0
0.00010922 -2.4693e-05 0
0.00010379 -2.3816e-05 0
9.828e-05 -2.2805e-05 0
9.2654e-05 -2.189e-05 0
8.7065e-05 -2.0727e-05 0
8.1332e-05 -1.9461e-05 0
7.547e-05 -1.8072e-05 0
6.9407e-05 -1.6202e-05 0
6.3499e-05 -1.4094e-05 0
5.6906e-05 -1.2057e-05 0
5.07e-05 -1.0149e-05 0
4.3957e-05 -8.3835e-06 0
3.7259e-05 -6.4644e-06 0
2.9356e-05 -4.4222e-06 0
2.3182e-05 -2.6292e-06 0
1.6199e-05 -1.3772e-06 0
8.2066e-06 -6.294e-07 0
3.5425e-06 -2.4983e-07 0
1.1364e-06 -7.3137e-08 0
3.3447e-07 -3.0755e-08 0
8.264e-08 -1.7451e-09 0
9.0906e-09 1.7901e-10 0
8.4903e-09 -5.801e-09 0
-2.5191e-09 8.3012e-09 0
9.3961e-09 -1.147e-08 0
0.0001405 -2.8356e-05 0
0.00013508 -2.7404e-05 0
0.00012992 -2.6371e-05 0
0.00012453 -2.5504e-05 0
0.00011902 -2.4599e-05 0
0.00011378 -2.3822e-05 0
0.00010817 -2.2883e-05 0
0.00010273 -2.1956e-05 0
9.7156e-05 -2.1026e-05 0
9.1511e-05 -2.0048e-05 0
8.5852e-05 -1.8875e-05 0
7.9945e-05 -1.7599e-05 0
7.4129e-05 -1.6193e-05 0
6.7951e-05 -1.4303e-05 0
6.1792e-05 -1.2247e-05 0
5.5395e-05 -1.0264e-05 0
4.9155e-05 -8.3884e-06 0
4.2069e-05 -6.3613e-06 0
3.515e-05 -4.3132e-06 0
2.7743e-05 -2.6695e-06 0
2.251e-05 -1.6029e-06 0
1.6192e-05 -9.0733e-07 0
8.4276e-06 -4.4148e-07 0
3.6867e-06 -1.8323e-07 0
1.209e-06 -5.359e-08 0
3.565e-07 -2.2269e-08 0
8.8987e-08 -1.8706e-10 0
1.2935e-08 -3.5087e-09 0
6.5912e-09 3.0627e-09 0
-3.4795e-09 -2.8074e-09 0
-2.492e-09 4.9539e-09 0
0.00013946 -2.652e-05 0
0.0001341 -2.5502e-05 0
0.00012886 -2.4567e-05 0
0.00012355 -2.3648e-05 0
0.00011805 -2.285e-05 0
0.0001127 -2.1982e-05 0
0.00010708 -2.1029e-05 0
0.0001017 -2.0194e-05 0
9.6038e-05 -1.9225e-05 0
9.03e-05 -1.8214e-05 0
8.4705e-05 -1.7047e-05 0
7.8666e-05 -1.5801e-05 0
7.279e-05 -1.425e-05 0
6.6478e-05 -1.2428e-05 0
6.0468e-05 -1.0514e-05 0
5.3936e-05 -8.4618e-06 0
4.7209e-05 -6.3201e-06 0
4.0159e-05 -4.2989e-06 0
3.3844e-05 -2.786e-06 0
2.7305e-05 -1.8232e-06 0
2.2638e-05 -1.2141e-06 0
1.6521e-05 -7.163e-07 0
8.7232e-06 -3.5159e-07 0
3.8279e-06 -1.3649e-07 0
1.2799e-06 -5.0052e-08 0
3.6795e-07 -7.7554e-09 0
1.0097e-07 -6.4687e-09 0
8.5224e-09 -8.9048e-10 0
9.6469e-09 4.7612e-09 0
4.0533e-09 -1.1367e-08 0
-1.6532e-09 1.2889e-08 0
0.00013848 -2.4538e-05 0
0.00013307 -2.3644e-05 0
0.0001279 -2.2732e-05 0
0.00012258 -2.1878e-05 0
0.00011694 -2.1021e-05 0
0.00011165 -2.0127e-05 0
0.00010609 -1.932e-05 0
0.0001006 -1.8385e-05 0
9.4875e-05 -1.7435e-05 0
8.9294e-05 -1.6451e-05 0
8.35e-05 -1.5253e-05 0
7.7346e-05 -1.3918e-05 0
7.1606e-05 -1.2411e-05 0
6.5274e-05 -1.0712e-05 0
5.9046e-05 -8.6004e-06 0
5.207e-05 -6.3532e-06 0
4.5508e-05 -4.3858e-06 0
3.9224e-05 -2.9753e-06 0
3.3619e-05 -2.0907e-06 0
2.7542e-05 -1.5052e-06 0
2.3017e-05 -1.0172e-06 0
1.6914e-05 -5.9551e-07 0
8.9803e-06 -2.7304e-07 0
3.9503e-06 -1.0484e-07 0
1.3327e-06 -3.8538e-08 0
3.7785e-07 -2.7716e-09 0
1.0849e-07 -8.2293e-09 0
9.3665e-09 3.2999e-09 0
4.8841e-09 1.7053e-09 0
1.8172e-09 -4.8249e-09 0
-1.0251e-09 4.0314e-09 0
0.00013738 -2.2805e-05 0
0.00013208 -2.178e-05 0
0.00012688 -2.0867e-05 0
0.00012156 -2.0028e-05 0
0.00011593 -1.9211e-05 0
0.00011065 -1.8413e-05 0
0.00010503 -1.752e-05 0
9.9538e-05 -1.6631e-05 0
9.3915e-05 -1.5759e-05 0
8.8167e-05 -1.4647e-05 0
8.2242e-05 -1.344e-05 0
7.6374e-05 -1.2182e-05 0
7.0532e-05 -1.0706e-05 0
6.3811e-05 -8.7069e-06 0
5.7348e-05 -6.4495e-06 0
5.0656e-05 -4.5581e-06 0
4.4891e-05 -3.2425e-06 0
3.9244e-05 -2.3904e-06 0
3.3934e-05 -1.8056e-06 0
2.7968e-05 -1.3173e-06 0
2.3441e-05 -8.5984e-07 0
1.7277e-05 -4.8004e-07 0
9.1932e-06 -2.0471e-07 0
4.0463e-06 -8.1023e-08 0
1.3692e-06 -2.1905e-08 0
3.9104e-07 -6.6792e-09 0
1.0447e-07 -1.6375e-09 0
1.8449e-08 -8.3215e-10 0
3.5157e-09 -1.8374e-09 0
1.1506e-09 7.2369e-09 0
-6.6278e-10 -6.7619e-09 0
0.00013654 -2.0791e-05 0
0.00013115 -1.9898e-05 0
0.00012589 -1.9085e-05 0
0.00012056 -1.8283e-05 0
0.00011492 -1.7467e-05 0
0.00010965 -1.6622e-05 0
0.00010408 -1.5816e-05 0
9.8598e-05 -1.4992e-05 0
9.2845e-05 -1.398e-05 0
8.7051e-05 -1.2896e-05 0
8.1403e-05 -1.1805e-05 0
7.5393e-05 -1.0489e-05 0
6.9073e-05 -8.6797e-06 0
6.2292e-05 -6.5659e-06 0
5.6285e-05 -4.782e-06 0
5.0321e-05 -3.556e-06 0
4.5116e-05 -2.7292e-06 0
3.966e-05 -2.1078e-06 0
3.4386e-05 -1.6093e-06 0
2.8418e-05 -1.1375e-06 0
2.3858e-05 -7.0743e-07 0
1.758e-05 -3.6494e-07 0
9.3676e-06 -1.519e-07 0
4.1137e-06 -5.5219e-08 0
1.3958e-06 -1.3345e-08 0
4.0122e-07 -8.1955e-09 0
1.0147e-07 4.3666e-09 0
2.0197e-08 -2.1638e-09 0
1.8149e-09 -4.3752e-09 0
7.0068e-09 5.3227e-09 0
-4.074e-09 -7.1914e-09 0
0.00013542 -1.8945e-05 0
0.00013011 -1.8071e-05 0
0.00012491 -1.725e-05 0
0.00011962 -1.6458e-05 0
0.00011403 -1.5698e-05 0
0.00010876 -1.4967e-05 0
0.00010316 -1.418e-05 0
9.7604e-05 -1.3264e-05 0
9.1906e-05 -1.231e-05 0
8.6302e-05 -1.1327e-05 0
8.047e-05 -1.0117e-05 0
7.4019e-05 -8.5066e-06 0
6.7782e-05 -6.6374e-06 0
6.1568e-05 -5.0202e-06 0
5.6219e-05 -3.8792e-06 0
5.0691e-05 -3.0724e-06 0
4.5631e-05 -2.4259e-06 0
4.0157e-05 -1.8813e-06 0
3.4848e-05 -1.4057e-06 0
2.8865e-05 -9.51e-07 0
2.4236e-05 -5.5164e-07 0
1.7827e-05 -2.6448e-07 0
9.4966e-06 -1.0718e-07 0
4.1628e-06 -3.415e-08 0
1.4136e-06 -8.8917e-09 0
4.0402e-07 -5.1211e-09 0
1.0795e-07 -2.7349e-10 0
1.625e-08 2.8501e-09 0
2.2952e-10 -1.2338e-09 0
8.2624e-09 1.5934e-09 0
-1.3199e-08 5.2856e-10 0
0.00013476 -1.6914e-05 0
0.00012934 -1.6159e-05 0
0.00012411 -1.5424e-05 0
0.0001188 -1.4741e-05 0
0.00011317 -1.4065e-05 0
0.0001079 -1.3326e-05 0
0.00010231 -1.2512e-05 0
9.6832e-05 -1.1672e-05 0
9.1221e-05 -1.0766e-05 0
8.5405e-05 -9.6476e-06 0
7.9269e-05 -8.231e-06 0
7.3018e-05 -6.6367e-06 0
6.7383e-05 -5.2234e-06 0
6.1728e-05 -4.1795e-06 0
5.6707e-05 -3.3901e-06 0
5.1269e-05 -2.7285e-06 0
4.6178e-05 -2.1484e-06 0
4.064e-05 -1.6468e-06 0
3.5304e-05 -1.1849e-06 0
2.9286e-05 -7.5536e-07 0
2.4557e-05 -4.0531e-07 0
1.8019e-05 -1.8185e-07 0
9.5811e-06 -6.8634e-08 0
4.202e-06 -2.2885e-08 0
1.4212e-06 -3.9799e-09 0
4.0441e-07 -3.836e-11 0
1.1296e-07 -4.9277e-09 0
1.4707e-08 1.9124e-09 0
3.8064e-09 -1.0658e-09 0
9.475e-09 -1.0737e-09 0
-7.1408e-09 1.4184e-09 0
0.00013385 -1.506e-05 0
0.00012848 -1.4291e-05 0
0.00012327 -1.3678e-05 0
0.00011799 -1.3072e-05 0
0.00011243 -1.2417e-05 0
0.00010721 -1.1717e-05 0
0.00010167 -1.0976e-05 0
9.6198e-05 -1.0141e-05 0
9.041e-05 -9.1289e-06 0
8.4467e-05 -7.9036e-06 0
7.8619e-05 -6.5659e-06 0
7.2921e-05 -5.3593e-06 0
6.7725e-05 -4.4176e-06 0
6.2296e-05 -3.6581e-06 0
5.7326e-05 -2.9897e-06 0
5.1851e-05 -2.3883e-06 0
4.6688e-05 -1.8647e-06 0
4.1103e-05 -1.3946e-06 0
3.5748e-05 -9.4897e-07 0
2.9654e-05 -5.6177e-07 0
2.4815e-05 -2.7989e-07 0
1.8155e-05 -1.1592e-07 0
9.6364e-06 -4.0958e-08 0
4.2277e-06 -1.404e-08 0
1.4249e-06 -3.5733e-09 0
4.0778e-07 2.1287e-09 0
1.0911e-07 -6.2375e-10 0
1.5517e-08 -3.6459e-10 0
4.1617e-09 1.5413e-10 0
3.5776e-09 -1.5688e-09 0
-3.2857e-09 -9.7359e-10 0
0.00013302 -1.2998e-05 0
0.00012767 -1.2451e-05 0
0.00012258 -1.196e-05 0
0.0001174 -1.1436e-05 0
0.0001119 -1.0871e-05 0
0.0001067 -1.0228e-05 0
0.00010114 -9.4753e-06 0
9.5596e-05 -8.589e-06 0
8.983e-05 -7.5473e-06 0
8.4199e-05 -6.4286e-06 0
7.8787e-05 -5.4066e-06 0
7.3397e-05 -4.5667e-06 0
6.8338e-05 -3.8471e-06 0
6.2933e-05 -3.1883e-06 0
5.7926e-05 -2.5819e-06 0
5.2382e-05 -2.0449e-06 0
4.7157e-05 -1.5712e-06 0
4.1554e-05 -1.1219e-06 0
3.6151e-05 -7.1053e-07 0
2.9957e-05 -3.8834e-07 0
2.5003e-05 -1.7783e-07 0
1.8244e-05 -6.9814e-08 0
9.6739e-06 -2.278e-08 0
4.2376e-06 -5.1477e-09 0
1.4296e-06 -5.307e-09 0
4.1237e-07 8.9095e-10 0
1.0536e-07 1.1685e-09 0
1.7899e-08 -1.1751e-09 0
3.5394e-09 3.1909e-09 0
6.8903e-10 5.0873e-10 0
-5.2012e-10 1.0563e-09 0
0.00013279 -1.0656e-05 0
0.00012746 -1.0625e-05 0
0.00012238 -1.0358e-05 0
0.00011718 -9.9602e-06 0
0.00011166 -9.4248e-06 0
0.00010646 -8.7733e-06 0
0.0001009 -8.028e-06 0
9.5435e-05 -7.1583e-06 0
8.9916e-05 -6.2199e-06 0
8.4572e-05 -5.3506e-06 0
7.934e-05 -4.6067e-06 0
7.4022e-05 -3.9364e-06 0
6.897e-05 -3.3025e-06 0
6.3532e-05 -2.7092e-06 0
5.8462e-05 -2.1758e-06 0
5.2856e-05 -1.7038e-06 0
4.7605e-05 -1.2594e-06 0
4.1971e-05 -8.4043e-07 0
3.6489e-05 -4.9177e-07 0
3.0188e-05 -2.4538e-07 0
2.5125e-05 -1.0365e-07 0
1.83e-05 -3.9857e-08 0
9.6961e-06 -1.1143e-08 0
4.2403e-06 -1.5287e-09 0
1.4325e-06 -2.4885e-09 0
4.126e-07 3.2179e-11 0
1.0674e-07 -6.5437e-10 0
1.8447e-08 -1.2764e-09 0
4.6393e-09 -3.5851e-11 0
3.8268e-09 -1.9012e-09 0
-9.0039e-10 1.6125e-09 0
0.00013314 -8.7866e-06 0
0.00012783 -8.9977e-06 0
0.00012265 -8.8586e-06 0
0.00011739 -8.4885e-06 0
0.00011183 -7.9891e-06 0
0.00010662 -7.4067e-06 0
0.00010111 -6.6974e-06 0
9.5769e-05 -5.909e-06 0
9.0396e-05 -5.1698e-06 0
8.5141e-05 -4.5189e-06 0
7.9945e-05 -3.9091e-06 0
7.4629e-05 -3.317e-06 0
6.9549e-05 -2.7546e-06 0
6.4056e-05 -2.2428e-06 0
5.8928e-05 -1.7851e-06 0
5.3296e-05 -1.3518e-06 0
4.8024e-05 -9.3653e-07 0
4.2327e-05 -5.7773e-07 0
3.675e-05 -3.0867e-07 0
3.0342e-05 -1.4075e-07 0
2.5199e-05 -5.656e-08 0
1.8333e-05 -1.8835e-08 0
9.7061e-06 -6.1959e-09 0
4.2443e-06 -1.6706e-09 0
1.4329e-06 1.4742e-09 0
4.1019e-07 -1.1649e-09 0
1.09e-07 5.268e-10 0
1.5536e-08 1.1863e-09 0
3.8299e-09 -1.2821e-09 0
5.1643e-09 -5.995e-10 0
-5.7328e-09 5.7203e-10 0
0.00013354 -7.3246e-06 0
0.00012825 -7.4406e-06 0
0.00012307 -7.3232e-06 0
0.00011778 -7.049e-06 0
0.0001122 -6.6512e-06 0
0.00010699 -6.1006e-06 0
0.00010152 -5.4592e-06 0
9.6243e-05 -4.8498e-06 0
9.0921e-05 -4.2968e-06 0
8.5695e-05 -3.7579e-06 0
8.0506e-05 -3.2226e-06 0
7.5169e-05 -2.709e-06 0
7.0042e-05 -2.2364e-06 0
6.4502e-05 -1.8058e-06 0
5.9353e-05 -1.3919e-06 0
5.3706e-05 -9.8986e-07 0
4.8383e-05 -6.3419e-07 0
4.2602e-05 -3.5721e-07 0
3.6926e-05 -1.7328e-07 0
3.0434e-05 -7.4766e-08 0
2.5241e-05 -2.7303e-08 0
1.8348e-05 -7.081e-09 0
9.7102e-06 -4.301e-09 0
4.2478e-06 -5.9305e-10 0
1.4328e-06 1.2838e-09 0
4.0988e-07 -1.9581e-09 0
1.1039e-07 1.1778e-09 0
1.4765e-08 5.336e-10 0
3.0747e-09 1.1861e-10 0
5.7635e-09 2.1222e-09 0
-5.3882e-09 -1.2331e-09 0
0.00013368 -6.0885e-06 0
0.00012847 -6.116e-06 0
0.00012333 -6.01e-06 0
0.00011807 -5.7589e-06 0
0.00011252 -5.3627e-06 0
0.00010732 -4.8791e-06 0
0.0001019 -4.4006e-06 0
9.668e-05 -3.9426e-06 0
9.1402e-05 -3.4802e-06 0
8.6193e-05 -3.0172e-06 0
8.0988e-05 -2.5707e-06 0
7.5615e-05 -2.1531e-06 0
7.0456e-05 -1.7607e-06 0
6.4904e-05 -1.3735e-06 0
5.9744e-05 -9.9357e-07 0
5.4055e-05 -6.5351e-07 0
4.866e-05 -3.8238e-07 0
4.2789e-05 -1.9525e-07 0
3.703e-05 -8.852e-08 0
3.0485e-05 -3.5306e-08 0
2.5263e-05 -1.1164e-08 0
1.8354e-05 -3.7127e-09 0
9.7129e-06 -1.1155e-09 0
4.2481e-06 3.2514e-11 0
1.4327e-06 -3.8811e-10 0
4.1061e-07 1.7114e-10 0
1.0977e-07 -2.3781e-10 0
1.6673e-08 -1.372e-09 0
3.5332e-09 6.4856e-11 0
5.2113e-09 5.0617e-10 0
-4.1348e-09 -1.9969e-09 0
0.00013372 -4.9909e-06 0
0.00012853 -4.9317e-06 0
0.00012345 -4.7762e-06 0
0.00011824 -4.5296e-06 0
0.0001127 -4.1986e-06 0
0.00010757 -3.8332e-06 0
0.00010223 -3.4618e-06 0
9.7075e-05 -3.0873e-06 0
9.1819e-05 -2.7151e-06 0
8.66e-05 -2.3503e-06 0
8.1375e-05 -1.9967e-06 0
7.5988e-05 -1.6484e-06 0
7.0828e-05 -1.2939e-06 0
6.5269e-05 -9.4469e-07 0
6.0072e-05 -6.3181e-07 0
5.4319e-05 -3.7953e-07 0
4.8844e-05 -2.0133e-07 0
4.2896e-05 -9.5767e-08 0
3.7085e-05 -4.0262e-08 0
3.051e-05 -1.3515e-08 0
2.5271e-05 -5.3447e-09 0
1.8357e-05 -1.8608e-09 0
9.7146e-06 1.0315e-09 0
4.247e-06 -1.1179e-09 0
1.4333e-06 -1.9161e-10 0
4.1091e-07 1.6209e-09 0
1.0775e-07 -9.99e-10 0
1.7415e-08 1.8684e-10 0
3.7017e-09 1.7985e-10 0
3.8628e-09 -6.5878e-10 0
-3.7934e-09 8.0209e-10 0
0.00013368 -3.9519e-06 0
0.00012853 -3.8662e-06 0
0.00012348 -3.7193e-06 0
0.0001183 -3.4844e-06 0
0.00011284 -3.1932e-06 0
0.0001078 -2.9013e-06 0
0.00010253 -2.6235e-06 0
9.7396e-05 -2.3474e-06 0
9.2143e-05 -2.0636e-06 0
8.6923e-05 -1.772e-06 0
8.1703e-05 -1.4688e-06 0
7.6323e-05 -1.1532e-06 0
7.1157e-05 -8.4445e-07 0
6.5565e-05 -5.7004e-07 0
6.0311e-05 -3.4841e-07 0
5.4489e-05 -1.9035e-07 0
4.8946e-05 -9.4172e-08 0
4.2951e-05 -4.1609e-08 0
3.7111e-05 -1.5027e-08 0
3.052e-05 -5.3725e-09 0
2.5274e-05 -2.4083e-09 0
1.8359e-05 1.3157e-10 0
9.7144e-06 9.8104e-11 0
4.247e-06 -7.8195e-10 0
1.434e-06 3.4599e-10 0
4.1098e-07 1.3913e-10 0
1.0759e-07 -4.4035e-10 0
1.7126e-08 1.0647e-09 0
3.772e-09 -2.6156e-10 0
3.8819e-09 -6.3632e-10 0
-3.1379e-09 1.9166e-09 0
0.00013361 -3.0459e-06 0
0.00012848 -2.935e-06 0
0.00012346 -2.7534e-06 0
0.00011835 -2.5245e-06 0
0.00011297 -2.3147e-06 0
0.000108 -2.1292e-06 0
0.00010275 -1.9362e-06 0
9.7643e-05 -1.7214e-06 0
9.2407e-05 -1.4854e-06 0
8.7205e-05 -1.2284e-06 0
8.1995e-05 -9.5936e-07 0
7.6607e-05 -7.0101e-07 0
7.141e-05 -4.7479e-07 0
6.5767e-05 -2.931e-07 0
6.0456e-05 -1.6379e-07 0
5.4578e-05 -8.3984e-08 0
4.8996e-05 -3.8536e-08 0
4.2977e-05 -1.4765e-08 0
3.7121e-05 -5.836e-09 0
3.0523e-05 -2.4607e-09 0
2.5276e-05 1.9859e-10 0
1.8359e-05 -2.2251e-10 0
9.7139e-06 -5.6293e-10 0
4.2479e-06 8.5415e-10 0
1.4333e-06 -3.2079e-10 0
4.1079e-07 -7.1496e-10 0
1.0902e-07 5.9893e-10 0
1.64e-08 -2.4927e-10 0
3.7082e-09 -3.1224e-10 0
4.6879e-09 -5.5189e-11 0
-3.6759e-09 -7.1263e-11 0
0.00013352 -2.1947e-06 0
0.00012841 -2.0688e-06 0
0.00012344 -1.9049e-06 0
0.00011839 -1.7617e-06 0
0.00011308 -1.6377e-06 0
0.00010815 -1.5002e-06 0
0.00010294 -1.3375e-06 0
9.7856e-05 -1.1499e-06 0
9.264e-05 -9.4199e-07 0
8.7445e-05 -7.2909e-07 0
8.2224e-05 -5.31e-07 0
7.6807e-05 -3.6022e-07 0
7.1569e-05 -2.2411e-07 0
6.5881e-05 -1.2791e-07 0
6.0528e-05 -6.7592e-08 0
5.4619e-05 -3.1735e-08 0
4.9018e-05 -1.2538e-08 0
4.2985e-05 -5.2148e-09 0
3.7124e-05 -2.4374e-09 0
3.0525e-05 -7.9533e-11 0
2.5277e-05 6.0259e-11 0
1.8359e-05 -8.2836e-10 0
9.7146e-06 2.7382e-10 0
4.2481e-06 6.473e-10 0
1.4324e-06 -6.5348e-10 0
4.1089e-07 1.0592e-10 0
1.0949e-07 5.7766e-10 0
1.579e-08 -8.4168e-10 0
3.6372e-09 4.6783e-10 0
5.0614e-09 6.2243e-10 0
-4.5583e-09 -1.2017e-09 0
0.00013341 -1.4869e-06 0
0.00012834 -1.3604e-06 0
0.00012342 -1.2408e-06 0
0.00011844 -1.1418e-06 0
0.00011318 -1.0407e-06 0
0.00010829 -9.2335e-07 0
0.0001031 -7.8663e-07 0
9.8033e-05 -6.3795e-07 0
9.2819e-05 -4.9158e-07 0
8.7612e-05 -3.584e-07 0
8.2368e-05 -2.4378e-07 0
7.6921e-05 -1.5315e-07 0
7.165e-05 -8.9808e-08 0
6.5933e-05 -4.9096e-08 0
6.0559e-05 -2.3581e-08 0
5.4636e-05 -9.8258e-09 0
4.9025e-05 -4.5195e-09 0
4.2988e-05 -1.8894e-09 0
3.7126e-05 1.9456e-10 0
3.0525e-05 6.2422e-11 0
2.5276e-05 -5.8252e-10 0
1.836e-05 2.3633e-10 0
9.7149e-06 1.5383e-10 0
4.2474e-06 -5.054e-10 0
1.4331e-06 2.0605e-10 0
4.1097e-07 2.7165e-10 0
1.0871e-07 -2.6772e-10 0
1.6359e-08 -1.436e-11 0
3.7609e-09 2.6596e-10 0
4.7259e-09 1.7129e-10 0
-4.43e-09 -4.4259e-10 0
0.0001333 -8.1647e-07 0
0.00012827 -7.1466e-07 0
0.00012343 -6.4528e-07 0
0.0001185 -5.9033e-07 0
0.00011327 -5.2742e-07 0
0.00010839 -4.5138e-07 0
0.00010322 -3.6921e-07 0
9.8147e-05 -2.884e-07 0
9.2924e-05 -2.1258e-07 0
8.7702e-05 -1.4566e-07 0
8.2438e-05 -9.3035e-08 0
7.6972e-05 -5.6091e-08 0
7.1683e-05 -3.0972e-08 0
6.5954e-05 -1.4706e-08 0
6.057e-05 -6.5995e-09 0
5.4641e-05 -3.6776e-09 0
4.9027e-05 -1.6524e-09 0
4.299e-05 3.0196e-11 0
3.7127e-05 -9.9581e-11 0
3.0525e-05 -5.4912e-10 0
2.5276e-05 3.578e-10 0
1.836e-05 5.7706e-10 0
9.714e-06 -5.1613e-10 0
4.2476e-06 -2.2924e-10 0
1.4339e-06 5.5241e-10 0
4.1052e-07 -3.8969e-10 0
1.0827e-07 -3.164e-10 0
1.7174e-08 7.1783e-10 0
3.5867e-09 -3.9641e-10 0
4.2463e-09 -4.0582e-10 0
-3.6337e-09 6.4034e-10 0
0.00013321 -3.3975e-07 0
0.00012824 -2.9138e-07 0
0.00012344 -2.6965e-07 0
0.00011853 -2.4719e-07 0
0.00011332 -2.1751e-07 0
0.00010845 -1.8293e-07 0
0.00010328 -1.4533e-07 0
9.8202e-05 -1.0747e-07 0
9.2973e-05 -7.4332e-08 0
8.7741e-05 -4.9217e-08 0
8.2467e-05 -3.0993e-08 0
7.6991e-05 -1.736e-08 0
7.1696e-05 -8.4344e-09 0
6.596e-05 -4.2948e-09 0
6.0573e-05 -2.3506e-09 0
5.4642e-05 -4.8678e-10 0
4.9028e-05 4.1461e-10 0
4.299e-05 -2.919e-10 0
3.7126e-05 -6.8147e-10 0
3.0526e-05 1.1081e-10 0
2.5277e-05 2.5603e-10 0
1.8359e-05 -3.091e-10 0
9.714e-06 4.6304e-11 0
4.2479e-06 4.1749e-10 0
1.4333e-06 -1.2265e-10 0
4.1051e-07 -2.9602e-10 0
1.0876e-07 1.2914e-10 0
1.6912e-08 2.4414e-10 0
3.4356e-09 -2.4954e-10 0
4.3254e-09 -1.8595e-10 0
-3.4606e-09 5.5739e-10 0
0.00013316 -1.2181e-07 0
0.00012823 -1.0229e-07 0
0.00012345 -9.388e-08 0
0.00011855 -8.5374e-08 0
0.00011334 -7.3957e-08 0
0.00010847 -5.967e-08 0
0.0001033 -4.5328e-08 0
9.8224e-05 -3.3276e-08 0
9.299e-05 -2.3285e-08 0
8.7754e-05 -1.4405e-08 0
8.2477e-05 -7.4528e-09 0
7.6997e-05 -3.9028e-09 0
7.1699e-05 -2.8329e-09 0
6.5962e-05 -1.7648e-09 0
6.0574e-05 -2.6969e-10 0
5.4643e-05 2.3806e-10 0
4.9028e-05 -2.3253e-10 0
4.2989e-05 -1.4781e-10 0
3.7127e-05 5.062e-10 0
3.0526e-05 2.25e-10 0
2.5276e-05 -6.034e-10 0
1.8359e-05 -2.6951e-10 0
9.7149e-06 4.1857e-10 0
4.2475e-06 -4.8211e-11 0
1.4327e-06 -2.5559e-10 0
4.1107e-07 4.3666e-10 0
1.0894e-07 5.0068e-11 0
1.6239e-08 -5.2183e-10 0
3.817e-09 2.7013e-10 0
4.6977e-09 2.0214e-10 0
-4.186e-09 -2.8424e-10 0
0.00013313 -3.1771e-08 0
0.00012822 -2.6243e-08 0
0.00012345 -2.5388e-08 0
0.00011855 -2.3068e-08 0
0.00011335 -1.9627e-08 0
0.00010848 -1.6323e-08 0
0.00010331 -1.2953e-08 0
9.8231e-05 -9.1092e-09 0
9.2996e-05 -5.5781e-09 0
8.7758e-05 -3.4972e-09 0
8.2479e-05 -2.6702e-09 0
7.6998e-05 -1.6698e-09 0
7.17e-05 -1.1846e-10 0
6.5963e-05 6.2545e-10 0
6.0574e-05 -6.1576e-11 0
5.4643e-05 -7.807e-10 0
4.9028e-05 -3.2428e-10 0
4.299e-05 4.3313e-10 0
3.7127e-05 2.4435e-10 0
3.0525e-05 -2.0492e-10 0
2.5276e-05 1.0886e-10 0
1.836e-05 3.0357e-10 0
9.7146e-06 -2.737e-10 0
4.2475e-06 -4.3498e-10 0
1.4333e-06 1.7467e-10 0
4.1102e-07 3.7881e-10 0
1.0848e-07 -1.1366e-10 0
1.6274e-08 -2.8468e-10 0
4.0551e-09 2.576e-10 0
4.7418e-09 1.4731e-10 0
-4.51e-09 -4.978e-10 0
0.00013313 -8.6859e-09 0
0.00012822 -7.461e-09 0
0.00012345 -6.9536e-09 0
0.00011856 -6.6439e-09 0
0.00011335 -5.9134e-09 0
0.00010849 -4.305e-09 0
0.00010331 -2.5186e-09 0
9.8233e-05 -1.4707e-09 0
9.2997e-05 -1.1985e-09 0
8.7759e-05 -1.011e-09 0
8.2479e-05 -4.5131e-10 0
7.6999e-05 2.9602e-11 0
7.17e-05 -1.1703e-10 0
6.5963e-05 -4.292e-10 0
6.0574e-05 -1.5396e-10 0
5.4643e-05 4.1057e-10 0
4.9028e-05 3.3993e-10 0
4.2989e-05 -3.5446e-10 0
3.7126e-05 -5.5594e-10 0
3.0526e-05 1.1794e-10 0
2.5277e-05 5.0626e-10 0
1.8359e-05 3.1214e-11 0
9.7139e-06 -2.1374e-10 0
4.248e-06 1.3089e-10 0
1.4337e-06 -3.6674e-12 0
4.1063e-07 -3.6386e-10 0
1.0853e-07 9.3847e-11 0
1.6653e-08 3.699e-10 0
3.5742e-09 -1.3024e-10 0
4.5363e-09 -1.1646e-10 0
-3.8561e-09 -1.3748e-11 0
0.00013313 -1.5826e-09 0
0.00012822 -1.0451e-09 0
0.00012345 -9.7982e-10 0