TITLE = "Example : C3D8_test1"
VARIABLES= "X"   "Y"   "Z" 

ZONE F=FEPOINT N =     8 E =     1 ET=BRICK C=CYAN 
 -1.0000E+01 -1.0000E+01  2.0000E+01
 -1.0000E+01  1.0000E+01  2.0000E+01
 -1.0000E+01 -1.0000E+01  0.0000E+00
 -1.0000E+01  1.0000E+01 -1.8571E-06
  1.0000E+01 -1.0000E+01  2.0000E+01
  1.0000E+01  1.0000E+01  2.0000E+01
  1.0000E+01 -1.0000E+01  0.0000E+00
  1.0000E+01  1.0000E+01 -1.8571E-06
      5      6      8      7      1      2      4      3
